TITLE = "Linear advection equation"
VARIABLES = "x", "y", "sol"
ZONE STRANDID=1, SOLUTIONTIME=0, I=100, J=100, DATAPACKING=POINT
0.00500000, 0.00500000, 0.00098664
0.00500000, 0.01500000, 0.00295601
0.00500000, 0.02500000, 0.00491373
0.00500000, 0.03500000, 0.00685204
0.00500000, 0.04500000, 0.00876332
0.00500000, 0.05500000, 0.01064002
0.00500000, 0.06500000, 0.01247472
0.00500000, 0.07500000, 0.01426019
0.00500000, 0.08500000, 0.01598938
0.00500000, 0.09500000, 0.01765547
0.00500000, 0.10500000, 0.01925188
0.00500000, 0.11500000, 0.02077231
0.00500000, 0.12500000, 0.02221076
0.00500000, 0.13500000, 0.02356156
0.00500000, 0.14500000, 0.02481937
0.00500000, 0.15500000, 0.02597923
0.00500000, 0.16500000, 0.02703656
0.00500000, 0.17500000, 0.02798719
0.00500000, 0.18500000, 0.02882737
0.00500000, 0.19500000, 0.02955378
0.00500000, 0.20500000, 0.03016355
0.00500000, 0.21500000, 0.03065429
0.00500000, 0.22500000, 0.03102404
0.00500000, 0.23500000, 0.03127136
0.00500000, 0.24500000, 0.03139526
0.00500000, 0.25500000, 0.03139526
0.00500000, 0.26500000, 0.03127136
0.00500000, 0.27500000, 0.03102404
0.00500000, 0.28500000, 0.03065429
0.00500000, 0.29500000, 0.03016355
0.00500000, 0.30500000, 0.02955378
0.00500000, 0.31500000, 0.02882737
0.00500000, 0.32500000, 0.02798719
0.00500000, 0.33500000, 0.02703656
0.00500000, 0.34500000, 0.02597923
0.00500000, 0.35500000, 0.02481937
0.00500000, 0.36500000, 0.02356156
0.00500000, 0.37500000, 0.02221076
0.00500000, 0.38500000, 0.02077231
0.00500000, 0.39500000, 0.01925188
0.00500000, 0.40500000, 0.01765547
0.00500000, 0.41500000, 0.01598938
0.00500000, 0.42500000, 0.01426019
0.00500000, 0.43500000, 0.01247472
0.00500000, 0.44500000, 0.01064002
0.00500000, 0.45500000, 0.00876332
0.00500000, 0.46500000, 0.00685204
0.00500000, 0.47500000, 0.00491373
0.00500000, 0.48500000, 0.00295601
0.00500000, 0.49500000, 0.00098664
0.00500000, 0.50500000, -0.00098664
0.00500000, 0.51500000, -0.00295601
0.00500000, 0.52500000, -0.00491373
0.00500000, 0.53500000, -0.00685204
0.00500000, 0.54500000, -0.00876332
0.00500000, 0.55500000, -0.01064002
0.00500000, 0.56500000, -0.01247472
0.00500000, 0.57500000, -0.01426019
0.00500000, 0.58500000, -0.01598938
0.00500000, 0.59500000, -0.01765547
0.00500000, 0.60500000, -0.01925188
0.00500000, 0.61500000, -0.02077231
0.00500000, 0.62500000, -0.02221076
0.00500000, 0.63500000, -0.02356156
0.00500000, 0.64500000, -0.02481937
0.00500000, 0.65500000, -0.02597923
0.00500000, 0.66500000, -0.02703656
0.00500000, 0.67500000, -0.02798719
0.00500000, 0.68500000, -0.02882737
0.00500000, 0.69500000, -0.02955378
0.00500000, 0.70500000, -0.03016355
0.00500000, 0.71500000, -0.03065429
0.00500000, 0.72500000, -0.03102404
0.00500000, 0.73500000, -0.03127136
0.00500000, 0.74500000, -0.03139526
0.00500000, 0.75500000, -0.03139526
0.00500000, 0.76500000, -0.03127136
0.00500000, 0.77500000, -0.03102404
0.00500000, 0.78500000, -0.03065429
0.00500000, 0.79500000, -0.03016355
0.00500000, 0.80500000, -0.02955378
0.00500000, 0.81500000, -0.02882737
0.00500000, 0.82500000, -0.02798719
0.00500000, 0.83500000, -0.02703656
0.00500000, 0.84500000, -0.02597923
0.00500000, 0.85500000, -0.02481937
0.00500000, 0.86500000, -0.02356156
0.00500000, 0.87500000, -0.02221076
0.00500000, 0.88500000, -0.02077231
0.00500000, 0.89500000, -0.01925188
0.00500000, 0.90500000, -0.01765547
0.00500000, 0.91500000, -0.01598938
0.00500000, 0.92500000, -0.01426019
0.00500000, 0.93500000, -0.01247472
0.00500000, 0.94500000, -0.01064002
0.00500000, 0.95500000, -0.00876332
0.00500000, 0.96500000, -0.00685204
0.00500000, 0.97500000, -0.00491373
0.00500000, 0.98500000, -0.00295601
0.00500000, 0.99500000, -0.00098664
0.01500000, 0.00500000, 0.00295601
0.01500000, 0.01500000, 0.00885637
0.01500000, 0.02500000, 0.01472178
0.01500000, 0.03500000, 0.02052909
0.01500000, 0.04500000, 0.02625538
0.01500000, 0.05500000, 0.03187805
0.01500000, 0.06500000, 0.03737492
0.01500000, 0.07500000, 0.04272428
0.01500000, 0.08500000, 0.04790503
0.01500000, 0.09500000, 0.05289672
0.01500000, 0.10500000, 0.05767965
0.01500000, 0.11500000, 0.06223494
0.01500000, 0.12500000, 0.06654463
0.01500000, 0.13500000, 0.07059169
0.01500000, 0.14500000, 0.07436016
0.01500000, 0.15500000, 0.07783516
0.01500000, 0.16500000, 0.08100298
0.01500000, 0.17500000, 0.08385112
0.01500000, 0.18500000, 0.08636834
0.01500000, 0.19500000, 0.08854470
0.01500000, 0.20500000, 0.09037162
0.01500000, 0.21500000, 0.09184188
0.01500000, 0.22500000, 0.09294968
0.01500000, 0.23500000, 0.09369066
0.01500000, 0.24500000, 0.09406188
0.01500000, 0.25500000, 0.09406188
0.01500000, 0.26500000, 0.09369066
0.01500000, 0.27500000, 0.09294968
0.01500000, 0.28500000, 0.09184188
0.01500000, 0.29500000, 0.09037162
0.01500000, 0.30500000, 0.08854470
0.01500000, 0.31500000, 0.08636834
0.01500000, 0.32500000, 0.08385112
0.01500000, 0.33500000, 0.08100298
0.01500000, 0.34500000, 0.07783516
0.01500000, 0.35500000, 0.07436016
0.01500000, 0.36500000, 0.07059169
0.01500000, 0.37500000, 0.06654463
0.01500000, 0.38500000, 0.06223494
0.01500000, 0.39500000, 0.05767965
0.01500000, 0.40500000, 0.05289672
0.01500000, 0.41500000, 0.04790503
0.01500000, 0.42500000, 0.04272428
0.01500000, 0.43500000, 0.03737492
0.01500000, 0.44500000, 0.03187805
0.01500000, 0.45500000, 0.02625538
0.01500000, 0.46500000, 0.02052909
0.01500000, 0.47500000, 0.01472178
0.01500000, 0.48500000, 0.00885637
0.01500000, 0.49500000, 0.00295601
0.01500000, 0.50500000, -0.00295601
0.01500000, 0.51500000, -0.00885637
0.01500000, 0.52500000, -0.01472178
0.01500000, 0.53500000, -0.02052909
0.01500000, 0.54500000, -0.02625538
0.01500000, 0.55500000, -0.03187805
0.01500000, 0.56500000, -0.03737492
0.01500000, 0.57500000, -0.04272428
0.01500000, 0.58500000, -0.04790503
0.01500000, 0.59500000, -0.05289672
0.01500000, 0.60500000, -0.05767965
0.01500000, 0.61500000, -0.06223494
0.01500000, 0.62500000, -0.06654463
0.01500000, 0.63500000, -0.07059169
0.01500000, 0.64500000, -0.07436016
0.01500000, 0.65500000, -0.07783516
0.01500000, 0.66500000, -0.08100298
0.01500000, 0.67500000, -0.08385112
0.01500000, 0.68500000, -0.08636834
0.01500000, 0.69500000, -0.08854470
0.01500000, 0.70500000, -0.09037162
0.01500000, 0.71500000, -0.09184188
0.01500000, 0.72500000, -0.09294968
0.01500000, 0.73500000, -0.09369066
0.01500000, 0.74500000, -0.09406188
0.01500000, 0.75500000, -0.09406188
0.01500000, 0.76500000, -0.09369066
0.01500000, 0.77500000, -0.09294968
0.01500000, 0.78500000, -0.09184188
0.01500000, 0.79500000, -0.09037162
0.01500000, 0.80500000, -0.08854470
0.01500000, 0.81500000, -0.08636834
0.01500000, 0.82500000, -0.08385112
0.01500000, 0.83500000, -0.08100298
0.01500000, 0.84500000, -0.07783516
0.01500000, 0.85500000, -0.07436016
0.01500000, 0.86500000, -0.07059169
0.01500000, 0.87500000, -0.06654463
0.01500000, 0.88500000, -0.06223494
0.01500000, 0.89500000, -0.05767965
0.01500000, 0.90500000, -0.05289672
0.01500000, 0.91500000, -0.04790503
0.01500000, 0.92500000, -0.04272428
0.01500000, 0.93500000, -0.03737492
0.01500000, 0.94500000, -0.03187805
0.01500000, 0.95500000, -0.02625538
0.01500000, 0.96500000, -0.02052909
0.01500000, 0.97500000, -0.01472178
0.01500000, 0.98500000, -0.00885637
0.01500000, 0.99500000, -0.00295601
0.02500000, 0.00500000, 0.00491373
0.02500000, 0.01500000, 0.01472178
0.02500000, 0.02500000, 0.02447174
0.02500000, 0.03500000, 0.03412512
0.02500000, 0.04500000, 0.04364382
0.02500000, 0.05500000, 0.05299029
0.02500000, 0.06500000, 0.06212762
0.02500000, 0.07500000, 0.07101976
0.02500000, 0.08500000, 0.07963162
0.02500000, 0.09500000, 0.08792921
0.02500000, 0.10500000, 0.09587979
0.02500000, 0.11500000, 0.10345197
0.02500000, 0.12500000, 0.11061587
0.02500000, 0.13500000, 0.11734322
0.02500000, 0.14500000, 0.12360748
0.02500000, 0.15500000, 0.12938391
0.02500000, 0.16500000, 0.13464972
0.02500000, 0.17500000, 0.13938413
0.02500000, 0.18500000, 0.14356845
0.02500000, 0.19500000, 0.14718618
0.02500000, 0.20500000, 0.15022303
0.02500000, 0.21500000, 0.15266702
0.02500000, 0.22500000, 0.15450850
0.02500000, 0.23500000, 0.15574020
0.02500000, 0.24500000, 0.15635727
0.02500000, 0.25500000, 0.15635727
0.02500000, 0.26500000, 0.15574020
0.02500000, 0.27500000, 0.15450850
0.02500000, 0.28500000, 0.15266702
0.02500000, 0.29500000, 0.15022303
0.02500000, 0.30500000, 0.14718618
0.02500000, 0.31500000, 0.14356845
0.02500000, 0.32500000, 0.13938413
0.02500000, 0.33500000, 0.13464972
0.02500000, 0.34500000, 0.12938391
0.02500000, 0.35500000, 0.12360748
0.02500000, 0.36500000, 0.11734322
0.02500000, 0.37500000, 0.11061587
0.02500000, 0.38500000, 0.10345197
0.02500000, 0.39500000, 0.09587979
0.02500000, 0.40500000, 0.08792921
0.02500000, 0.41500000, 0.07963162
0.02500000, 0.42500000, 0.07101976
0.02500000, 0.43500000, 0.06212762
0.02500000, 0.44500000, 0.05299029
0.02500000, 0.45500000, 0.04364382
0.02500000, 0.46500000, 0.03412512
0.02500000, 0.47500000, 0.02447174
0.02500000, 0.48500000, 0.01472178
0.02500000, 0.49500000, 0.00491373
0.02500000, 0.50500000, -0.00491373
0.02500000, 0.51500000, -0.01472178
0.02500000, 0.52500000, -0.02447174
0.02500000, 0.53500000, -0.03412512
0.02500000, 0.54500000, -0.04364382
0.02500000, 0.55500000, -0.05299029
0.02500000, 0.56500000, -0.06212762
0.02500000, 0.57500000, -0.07101976
0.02500000, 0.58500000, -0.07963162
0.02500000, 0.59500000, -0.08792921
0.02500000, 0.60500000, -0.09587979
0.02500000, 0.61500000, -0.10345197
0.02500000, 0.62500000, -0.11061587
0.02500000, 0.63500000, -0.11734322
0.02500000, 0.64500000, -0.12360748
0.02500000, 0.65500000, -0.12938391
0.02500000, 0.66500000, -0.13464972
0.02500000, 0.67500000, -0.13938413
0.02500000, 0.68500000, -0.14356845
0.02500000, 0.69500000, -0.14718618
0.02500000, 0.70500000, -0.15022303
0.02500000, 0.71500000, -0.15266702
0.02500000, 0.72500000, -0.15450850
0.02500000, 0.73500000, -0.15574020
0.02500000, 0.74500000, -0.15635727
0.02500000, 0.75500000, -0.15635727
0.02500000, 0.76500000, -0.15574020
0.02500000, 0.77500000, -0.15450850
0.02500000, 0.78500000, -0.15266702
0.02500000, 0.79500000, -0.15022303
0.02500000, 0.80500000, -0.14718618
0.02500000, 0.81500000, -0.14356845
0.02500000, 0.82500000, -0.13938413
0.02500000, 0.83500000, -0.13464972
0.02500000, 0.84500000, -0.12938391
0.02500000, 0.85500000, -0.12360748
0.02500000, 0.86500000, -0.11734322
0.02500000, 0.87500000, -0.11061587
0.02500000, 0.88500000, -0.10345197
0.02500000, 0.89500000, -0.09587979
0.02500000, 0.90500000, -0.08792921
0.02500000, 0.91500000, -0.07963162
0.02500000, 0.92500000, -0.07101976
0.02500000, 0.93500000, -0.06212762
0.02500000, 0.94500000, -0.05299029
0.02500000, 0.95500000, -0.04364382
0.02500000, 0.96500000, -0.03412512
0.02500000, 0.97500000, -0.02447174
0.02500000, 0.98500000, -0.01472178
0.02500000, 0.99500000, -0.00491373
0.03500000, 0.00500000, 0.00685204
0.03500000, 0.01500000, 0.02052909
0.03500000, 0.02500000, 0.03412512
0.03500000, 0.03500000, 0.04758647
0.03500000, 0.04500000, 0.06086002
0.03500000, 0.05500000, 0.07389339
0.03500000, 0.06500000, 0.08663513
0.03500000, 0.07500000, 0.09903496
0.03500000, 0.08500000, 0.11104394
0.03500000, 0.09500000, 0.12261469
0.03500000, 0.10500000, 0.13370153
0.03500000, 0.11500000, 0.14426071
0.03500000, 0.12500000, 0.15425057
0.03500000, 0.13500000, 0.16363166
0.03500000, 0.14500000, 0.17236698
0.03500000, 0.15500000, 0.18042204
0.03500000, 0.16500000, 0.18776506
0.03500000, 0.17500000, 0.19436705
0.03500000, 0.18500000, 0.20020197
0.03500000, 0.19500000, 0.20524678
0.03500000, 0.20500000, 0.20948158
0.03500000, 0.21500000, 0.21288965
0.03500000, 0.22500000, 0.21545754
0.03500000, 0.23500000, 0.21717511
0.03500000, 0.24500000, 0.21803560
0.03500000, 0.25500000, 0.21803560
0.03500000, 0.26500000, 0.21717511
0.03500000, 0.27500000, 0.21545754
0.03500000, 0.28500000, 0.21288965
0.03500000, 0.29500000, 0.20948158
0.03500000, 0.30500000, 0.20524678
0.03500000, 0.31500000, 0.20020197
0.03500000, 0.32500000, 0.19436705
0.03500000, 0.33500000, 0.18776506
0.03500000, 0.34500000, 0.18042204
0.03500000, 0.35500000, 0.17236698
0.03500000, 0.36500000, 0.16363166
0.03500000, 0.37500000, 0.15425057
0.03500000, 0.38500000, 0.14426071
0.03500000, 0.39500000, 0.13370153
0.03500000, 0.40500000, 0.12261469
0.03500000, 0.41500000, 0.11104394
0.03500000, 0.42500000, 0.09903496
0.03500000, 0.43500000, 0.08663513
0.03500000, 0.44500000, 0.07389339
0.03500000, 0.45500000, 0.06086002
0.03500000, 0.46500000, 0.04758647
0.03500000, 0.47500000, 0.03412512
0.03500000, 0.48500000, 0.02052909
0.03500000, 0.49500000, 0.00685204
0.03500000, 0.50500000, -0.00685204
0.03500000, 0.51500000, -0.02052909
0.03500000, 0.52500000, -0.03412512
0.03500000, 0.53500000, -0.04758647
0.03500000, 0.54500000, -0.06086002
0.03500000, 0.55500000, -0.07389339
0.03500000, 0.56500000, -0.08663513
0.03500000, 0.57500000, -0.09903496
0.03500000, 0.58500000, -0.11104394
0.03500000, 0.59500000, -0.12261469
0.03500000, 0.60500000, -0.13370153
0.03500000, 0.61500000, -0.14426071
0.03500000, 0.62500000, -0.15425057
0.03500000, 0.63500000, -0.16363166
0.03500000, 0.64500000, -0.17236698
0.03500000, 0.65500000, -0.18042204
0.03500000, 0.66500000, -0.18776506
0.03500000, 0.67500000, -0.19436705
0.03500000, 0.68500000, -0.20020197
0.03500000, 0.69500000, -0.20524678
0.03500000, 0.70500000, -0.20948158
0.03500000, 0.71500000, -0.21288965
0.03500000, 0.72500000, -0.21545754
0.03500000, 0.73500000, -0.21717511
0.03500000, 0.74500000, -0.21803560
0.03500000, 0.75500000, -0.21803560
0.03500000, 0.76500000, -0.21717511
0.03500000, 0.77500000, -0.21545754
0.03500000, 0.78500000, -0.21288965
0.03500000, 0.79500000, -0.20948158
0.03500000, 0.80500000, -0.20524678
0.03500000, 0.81500000, -0.20020197
0.03500000, 0.82500000, -0.19436705
0.03500000, 0.83500000, -0.18776506
0.03500000, 0.84500000, -0.18042204
0.03500000, 0.85500000, -0.17236698
0.03500000, 0.86500000, -0.16363166
0.03500000, 0.87500000, -0.15425057
0.03500000, 0.88500000, -0.14426071
0.03500000, 0.89500000, -0.13370153
0.03500000, 0.90500000, -0.12261469
0.03500000, 0.91500000, -0.11104394
0.03500000, 0.92500000, -0.09903496
0.03500000, 0.93500000, -0.08663513
0.03500000, 0.94500000, -0.07389339
0.03500000, 0.95500000, -0.06086002
0.03500000, 0.96500000, -0.04758647
0.03500000, 0.97500000, -0.03412512
0.03500000, 0.98500000, -0.02052909
0.03500000, 0.99500000, -0.00685204
0.04500000, 0.00500000, 0.00876332
0.04500000, 0.01500000, 0.02625538
0.04500000, 0.02500000, 0.04364382
0.04500000, 0.03500000, 0.06086002
0.04500000, 0.04500000, 0.07783604
0.04500000, 0.05500000, 0.09450487
0.04500000, 0.06500000, 0.11080073
0.04500000, 0.07500000, 0.12665931
0.04500000, 0.08500000, 0.14201803
0.04500000, 0.09500000, 0.15681626
0.04500000, 0.10500000, 0.17099562
0.04500000, 0.11500000, 0.18450013
0.04500000, 0.12500000, 0.19727650
0.04500000, 0.13500000, 0.20927432
0.04500000, 0.14500000, 0.22044622
0.04500000, 0.15500000, 0.23074812
0.04500000, 0.16500000, 0.24013937
0.04500000, 0.17500000, 0.24858290
0.04500000, 0.18500000, 0.25604538
0.04500000, 0.19500000, 0.26249737
0.04500000, 0.20500000, 0.26791340
0.04500000, 0.21500000, 0.27227210
0.04500000, 0.22500000, 0.27555626
0.04500000, 0.23500000, 0.27775293
0.04500000, 0.24500000, 0.27885344
0.04500000, 0.25500000, 0.27885344
0.04500000, 0.26500000, 0.27775293
0.04500000, 0.27500000, 0.27555626
0.04500000, 0.28500000, 0.27227210
0.04500000, 0.29500000, 0.26791340
0.04500000, 0.30500000, 0.26249737
0.04500000, 0.31500000, 0.25604538
0.04500000, 0.32500000, 0.24858290
0.04500000, 0.33500000, 0.24013937
0.04500000, 0.34500000, 0.23074812
0.04500000, 0.35500000, 0.22044622
0.04500000, 0.36500000, 0.20927432
0.04500000, 0.37500000, 0.19727650
0.04500000, 0.38500000, 0.18450013
0.04500000, 0.39500000, 0.17099562
0.04500000, 0.40500000, 0.15681626
0.04500000, 0.41500000, 0.14201803
0.04500000, 0.42500000, 0.12665931
0.04500000, 0.43500000, 0.11080073
0.04500000, 0.44500000, 0.09450487
0.04500000, 0.45500000, 0.07783604
0.04500000, 0.46500000, 0.06086002
0.04500000, 0.47500000, 0.04364382
0.04500000, 0.48500000, 0.02625538
0.04500000, 0.49500000, 0.00876332
0.04500000, 0.50500000, -0.00876332
0.04500000, 0.51500000, -0.02625538
0.04500000, 0.52500000, -0.04364382
0.04500000, 0.53500000, -0.06086002
0.04500000, 0.54500000, -0.07783604
0.04500000, 0.55500000, -0.09450487
0.04500000, 0.56500000, -0.11080073
0.04500000, 0.57500000, -0.12665931
0.04500000, 0.58500000, -0.14201803
0.04500000, 0.59500000, -0.15681626
0.04500000, 0.60500000, -0.17099562
0.04500000, 0.61500000, -0.18450013
0.04500000, 0.62500000, -0.19727650
0.04500000, 0.63500000, -0.20927432
0.04500000, 0.64500000, -0.22044622
0.04500000, 0.65500000, -0.23074812
0.04500000, 0.66500000, -0.24013937
0.04500000, 0.67500000, -0.24858290
0.04500000, 0.68500000, -0.25604538
0.04500000, 0.69500000, -0.26249737
0.04500000, 0.70500000, -0.26791340
0.04500000, 0.71500000, -0.27227210
0.04500000, 0.72500000, -0.27555626
0.04500000, 0.73500000, -0.27775293
0.04500000, 0.74500000, -0.27885344
0.04500000, 0.75500000, -0.27885344
0.04500000, 0.76500000, -0.27775293
0.04500000, 0.77500000, -0.27555626
0.04500000, 0.78500000, -0.27227210
0.04500000, 0.79500000, -0.26791340
0.04500000, 0.80500000, -0.26249737
0.04500000, 0.81500000, -0.25604538
0.04500000, 0.82500000, -0.24858290
0.04500000, 0.83500000, -0.24013937
0.04500000, 0.84500000, -0.23074812
0.04500000, 0.85500000, -0.22044622
0.04500000, 0.86500000, -0.20927432
0.04500000, 0.87500000, -0.19727650
0.04500000, 0.88500000, -0.18450013
0.04500000, 0.89500000, -0.17099562
0.04500000, 0.90500000, -0.15681626
0.04500000, 0.91500000, -0.14201803
0.04500000, 0.92500000, -0.12665931
0.04500000, 0.93500000, -0.11080073
0.04500000, 0.94500000, -0.09450487
0.04500000, 0.95500000, -0.07783604
0.04500000, 0.96500000, -0.06086002
0.04500000, 0.97500000, -0.04364382
0.04500000, 0.98500000, -0.02625538
0.04500000, 0.99500000, -0.00876332
0.05500000, 0.00500000, 0.01064002
0.05500000, 0.01500000, 0.03187805
0.05500000, 0.02500000, 0.05299029
0.05500000, 0.03500000, 0.07389339
0.05500000, 0.04500000, 0.09450487
0.05500000, 0.05500000, 0.11474338
0.05500000, 0.06500000, 0.13452905
0.05500000, 0.07500000, 0.15378380
0.05500000, 0.08500000, 0.17243163
0.05500000, 0.09500000, 0.19039895
0.05500000, 0.10500000, 0.20761486
0.05500000, 0.11500000, 0.22401141
0.05500000, 0.12500000, 0.23952388
0.05500000, 0.13500000, 0.25409106
0.05500000, 0.14500000, 0.26765547
0.05500000, 0.15500000, 0.28016355
0.05500000, 0.16500000, 0.29156596
0.05500000, 0.17500000, 0.30181770
0.05500000, 0.18500000, 0.31087829
0.05500000, 0.19500000, 0.31871199
0.05500000, 0.20500000, 0.32528789
0.05500000, 0.21500000, 0.33058001
0.05500000, 0.22500000, 0.33456749
0.05500000, 0.23500000, 0.33723459
0.05500000, 0.24500000, 0.33857077
0.05500000, 0.25500000, 0.33857077
0.05500000, 0.26500000, 0.33723459
0.05500000, 0.27500000, 0.33456749
0.05500000, 0.28500000, 0.33058001
0.05500000, 0.29500000, 0.32528789
0.05500000, 0.30500000, 0.31871199
0.05500000, 0.31500000, 0.31087829
0.05500000, 0.32500000, 0.30181770
0.05500000, 0.33500000, 0.29156596
0.05500000, 0.34500000, 0.28016355
0.05500000, 0.35500000, 0.26765547
0.05500000, 0.36500000, 0.25409106
0.05500000, 0.37500000, 0.23952388
0.05500000, 0.38500000, 0.22401141
0.05500000, 0.39500000, 0.20761486
0.05500000, 0.40500000, 0.19039895
0.05500000, 0.41500000, 0.17243163
0.05500000, 0.42500000, 0.15378380
0.05500000, 0.43500000, 0.13452905
0.05500000, 0.44500000, 0.11474338
0.05500000, 0.45500000, 0.09450487
0.05500000, 0.46500000, 0.07389339
0.05500000, 0.47500000, 0.05299029
0.05500000, 0.48500000, 0.03187805
0.05500000, 0.49500000, 0.01064002
0.05500000, 0.50500000, -0.01064002
0.05500000, 0.51500000, -0.03187805
0.05500000, 0.52500000, -0.05299029
0.05500000, 0.53500000, -0.07389339
0.05500000, 0.54500000, -0.09450487
0.05500000, 0.55500000, -0.11474338
0.05500000, 0.56500000, -0.13452905
0.05500000, 0.57500000, -0.15378380
0.05500000, 0.58500000, -0.17243163
0.05500000, 0.59500000, -0.19039895
0.05500000, 0.60500000, -0.20761486
0.05500000, 0.61500000, -0.22401141
0.05500000, 0.62500000, -0.23952388
0.05500000, 0.63500000, -0.25409106
0.05500000, 0.64500000, -0.26765547
0.05500000, 0.65500000, -0.28016355
0.05500000, 0.66500000, -0.29156596
0.05500000, 0.67500000, -0.30181770
0.05500000, 0.68500000, -0.31087829
0.05500000, 0.69500000, -0.31871199
0.05500000, 0.70500000, -0.32528789
0.05500000, 0.71500000, -0.33058001
0.05500000, 0.72500000, -0.33456749
0.05500000, 0.73500000, -0.33723459
0.05500000, 0.74500000, -0.33857077
0.05500000, 0.75500000, -0.33857077
0.05500000, 0.76500000, -0.33723459
0.05500000, 0.77500000, -0.33456749
0.05500000, 0.78500000, -0.33058001
0.05500000, 0.79500000, -0.32528789
0.05500000, 0.80500000, -0.31871199
0.05500000, 0.81500000, -0.31087829
0.05500000, 0.82500000, -0.30181770
0.05500000, 0.83500000, -0.29156596
0.05500000, 0.84500000, -0.28016355
0.05500000, 0.85500000, -0.26765547
0.05500000, 0.86500000, -0.25409106
0.05500000, 0.87500000, -0.23952388
0.05500000, 0.88500000, -0.22401141
0.05500000, 0.89500000, -0.20761486
0.05500000, 0.90500000, -0.19039895
0.05500000, 0.91500000, -0.17243163
0.05500000, 0.92500000, -0.15378380
0.05500000, 0.93500000, -0.13452905
0.05500000, 0.94500000, -0.11474338
0.05500000, 0.95500000, -0.09450487
0.05500000, 0.96500000, -0.07389339
0.05500000, 0.97500000, -0.05299029
0.05500000, 0.98500000, -0.03187805
0.05500000, 0.99500000, -0.01064002
0.06500000, 0.00500000, 0.01247472
0.06500000, 0.01500000, 0.03737492
0.06500000, 0.02500000, 0.06212762
0.06500000, 0.03500000, 0.08663513
0.06500000, 0.04500000, 0.11080073
0.06500000, 0.05500000, 0.13452905
0.06500000, 0.06500000, 0.15772645
0.06500000, 0.07500000, 0.18030137
0.06500000, 0.08500000, 0.20216472
0.06500000, 0.09500000, 0.22323023
0.06500000, 0.10500000, 0.24341474
0.06500000, 0.11500000, 0.26263861
0.06500000, 0.12500000, 0.28082597
0.06500000, 0.13500000, 0.29790503
0.06500000, 0.14500000, 0.31380840
0.06500000, 0.15500000, 0.32847331
0.06500000, 0.16500000, 0.34184188
0.06500000, 0.17500000, 0.35386136
0.06500000, 0.18500000, 0.36448431
0.06500000, 0.19500000, 0.37366881
0.06500000, 0.20500000, 0.38137861
0.06500000, 0.21500000, 0.38758328
0.06500000, 0.22500000, 0.39225834
0.06500000, 0.23500000, 0.39538533
0.06500000, 0.24500000, 0.39695192
0.06500000, 0.25500000, 0.39695192
0.06500000, 0.26500000, 0.39538533
0.06500000, 0.27500000, 0.39225834
0.06500000, 0.28500000, 0.38758328
0.06500000, 0.29500000, 0.38137861
0.06500000, 0.30500000, 0.37366881
0.06500000, 0.31500000, 0.36448431
0.06500000, 0.32500000, 0.35386136
0.06500000, 0.33500000, 0.34184188
0.06500000, 0.34500000, 0.32847331
0.06500000, 0.35500000, 0.31380840
0.06500000, 0.36500000, 0.29790503
0.06500000, 0.37500000, 0.28082597
0.06500000, 0.38500000, 0.26263861
0.06500000, 0.39500000, 0.24341474
0.06500000, 0.40500000, 0.22323023
0.06500000, 0.41500000, 0.20216472
0.06500000, 0.42500000, 0.18030137
0.06500000, 0.43500000, 0.15772645
0.06500000, 0.44500000, 0.13452905
0.06500000, 0.45500000, 0.11080073
0.06500000, 0.46500000, 0.08663513
0.06500000, 0.47500000, 0.06212762
0.06500000, 0.48500000, 0.03737492
0.06500000, 0.49500000, 0.01247472
0.06500000, 0.50500000, -0.01247472
0.06500000, 0.51500000, -0.03737492
0.06500000, 0.52500000, -0.06212762
0.06500000, 0.53500000, -0.08663513
0.06500000, 0.54500000, -0.11080073
0.06500000, 0.55500000, -0.13452905
0.06500000, 0.56500000, -0.15772645
0.06500000, 0.57500000, -0.18030137
0.06500000, 0.58500000, -0.20216472
0.06500000, 0.59500000, -0.22323023
0.06500000, 0.60500000, -0.24341474
0.06500000, 0.61500000, -0.26263861
0.06500000, 0.62500000, -0.28082597
0.06500000, 0.63500000, -0.29790503
0.06500000, 0.64500000, -0.31380840
0.06500000, 0.65500000, -0.32847331
0.06500000, 0.66500000, -0.34184188
0.06500000, 0.67500000, -0.35386136
0.06500000, 0.68500000, -0.36448431
0.06500000, 0.69500000, -0.37366881
0.06500000, 0.70500000, -0.38137861
0.06500000, 0.71500000, -0.38758328
0.06500000, 0.72500000, -0.39225834
0.06500000, 0.73500000, -0.39538533
0.06500000, 0.74500000, -0.39695192
0.06500000, 0.75500000, -0.39695192
0.06500000, 0.76500000, -0.39538533
0.06500000, 0.77500000, -0.39225834
0.06500000, 0.78500000, -0.38758328
0.06500000, 0.79500000, -0.38137861
0.06500000, 0.80500000, -0.37366881
0.06500000, 0.81500000, -0.36448431
0.06500000, 0.82500000, -0.35386136
0.06500000, 0.83500000, -0.34184188
0.06500000, 0.84500000, -0.32847331
0.06500000, 0.85500000, -0.31380840
0.06500000, 0.86500000, -0.29790503
0.06500000, 0.87500000, -0.28082597
0.06500000, 0.88500000, -0.26263861
0.06500000, 0.89500000, -0.24341474
0.06500000, 0.90500000, -0.22323023
0.06500000, 0.91500000, -0.20216472
0.06500000, 0.92500000, -0.18030137
0.06500000, 0.93500000, -0.15772645
0.06500000, 0.94500000, -0.13452905
0.06500000, 0.95500000, -0.11080073
0.06500000, 0.96500000, -0.08663513
0.06500000, 0.97500000, -0.06212762
0.06500000, 0.98500000, -0.03737492
0.06500000, 0.99500000, -0.01247472
0.07500000, 0.00500000, 0.01426019
0.07500000, 0.01500000, 0.04272428
0.07500000, 0.02500000, 0.07101976
0.07500000, 0.03500000, 0.09903496
0.07500000, 0.04500000, 0.12665931
0.07500000, 0.05500000, 0.15378380
0.07500000, 0.06500000, 0.18030137
0.07500000, 0.07500000, 0.20610737
0.07500000, 0.08500000, 0.23109997
0.07500000, 0.09500000, 0.25518051
0.07500000, 0.10500000, 0.27825398
0.07500000, 0.11500000, 0.30022930
0.07500000, 0.12500000, 0.32101976
0.07500000, 0.13500000, 0.34054330
0.07500000, 0.14500000, 0.35872287
0.07500000, 0.15500000, 0.37548672
0.07500000, 0.16500000, 0.39076870
0.07500000, 0.17500000, 0.40450850
0.07500000, 0.18500000, 0.41665188
0.07500000, 0.19500000, 0.42715093
0.07500000, 0.20500000, 0.43596421
0.07500000, 0.21500000, 0.44305694
0.07500000, 0.22500000, 0.44840112
0.07500000, 0.23500000, 0.45197567
0.07500000, 0.24500000, 0.45376648
0.07500000, 0.25500000, 0.45376648
0.07500000, 0.26500000, 0.45197567
0.07500000, 0.27500000, 0.44840112
0.07500000, 0.28500000, 0.44305694
0.07500000, 0.29500000, 0.43596421
0.07500000, 0.30500000, 0.42715093
0.07500000, 0.31500000, 0.41665188
0.07500000, 0.32500000, 0.40450850
0.07500000, 0.33500000, 0.39076870
0.07500000, 0.34500000, 0.37548672
0.07500000, 0.35500000, 0.35872287
0.07500000, 0.36500000, 0.34054330
0.07500000, 0.37500000, 0.32101976
0.07500000, 0.38500000, 0.30022930
0.07500000, 0.39500000, 0.27825398
0.07500000, 0.40500000, 0.25518051
0.07500000, 0.41500000, 0.23109997
0.07500000, 0.42500000, 0.20610737
0.07500000, 0.43500000, 0.18030137
0.07500000, 0.44500000, 0.15378380
0.07500000, 0.45500000, 0.12665931
0.07500000, 0.46500000, 0.09903496
0.07500000, 0.47500000, 0.07101976
0.07500000, 0.48500000, 0.04272428
0.07500000, 0.49500000, 0.01426019
0.07500000, 0.50500000, -0.01426019
0.07500000, 0.51500000, -0.04272428
0.07500000, 0.52500000, -0.07101976
0.07500000, 0.53500000, -0.09903496
0.07500000, 0.54500000, -0.12665931
0.07500000, 0.55500000, -0.15378380
0.07500000, 0.56500000, -0.18030137
0.07500000, 0.57500000, -0.20610737
0.07500000, 0.58500000, -0.23109997
0.07500000, 0.59500000, -0.25518051
0.07500000, 0.60500000, -0.27825398
0.07500000, 0.61500000, -0.30022930
0.07500000, 0.62500000, -0.32101976
0.07500000, 0.63500000, -0.34054330
0.07500000, 0.64500000, -0.35872287
0.07500000, 0.65500000, -0.37548672
0.07500000, 0.66500000, -0.39076870
0.07500000, 0.67500000, -0.40450850
0.07500000, 0.68500000, -0.41665188
0.07500000, 0.69500000, -0.42715093
0.07500000, 0.70500000, -0.43596421
0.07500000, 0.71500000, -0.44305694
0.07500000, 0.72500000, -0.44840112
0.07500000, 0.73500000, -0.45197567
0.07500000, 0.74500000, -0.45376648
0.07500000, 0.75500000, -0.45376648
0.07500000, 0.76500000, -0.45197567
0.07500000, 0.77500000, -0.44840112
0.07500000, 0.78500000, -0.44305694
0.07500000, 0.79500000, -0.43596421
0.07500000, 0.80500000, -0.42715093
0.07500000, 0.81500000, -0.41665188
0.07500000, 0.82500000, -0.40450850
0.07500000, 0.83500000, -0.39076870
0.07500000, 0.84500000, -0.37548672
0.07500000, 0.85500000, -0.35872287
0.07500000, 0.86500000, -0.34054330
0.07500000, 0.87500000, -0.32101976
0.07500000, 0.88500000, -0.30022930
0.07500000, 0.89500000, -0.27825398
0.07500000, 0.90500000, -0.25518051
0.07500000, 0.91500000, -0.23109997
0.07500000, 0.92500000, -0.20610737
0.07500000, 0.93500000, -0.18030137
0.07500000, 0.94500000, -0.15378380
0.07500000, 0.95500000, -0.12665931
0.07500000, 0.96500000, -0.09903496
0.07500000, 0.97500000, -0.07101976
0.07500000, 0.98500000, -0.04272428
0.07500000, 0.99500000, -0.01426019
0.08500000, 0.00500000, 0.01598938
0.08500000, 0.01500000, 0.04790503
0.08500000, 0.02500000, 0.07963162
0.08500000, 0.03500000, 0.11104394
0.08500000, 0.04500000, 0.14201803
0.08500000, 0.05500000, 0.17243163
0.08500000, 0.06500000, 0.20216472
0.08500000, 0.07500000, 0.23109997
0.08500000, 0.08500000, 0.25912316
0.08500000, 0.09500000, 0.28612372
0.08500000, 0.10500000, 0.31199507
0.08500000, 0.11500000, 0.33663513
0.08500000, 0.12500000, 0.35994664
0.08500000, 0.13500000, 0.38183760
0.08500000, 0.14500000, 0.40222163
0.08500000, 0.15500000, 0.42101827
0.08500000, 0.16500000, 0.43815334
0.08500000, 0.17500000, 0.45355922
0.08500000, 0.18500000, 0.46717511
0.08500000, 0.19500000, 0.47894728
0.08500000, 0.20500000, 0.48882926
0.08500000, 0.21500000, 0.49678205
0.08500000, 0.22500000, 0.50277427
0.08500000, 0.23500000, 0.50678227
0.08500000, 0.24500000, 0.50879023
0.08500000, 0.25500000, 0.50879023
0.08500000, 0.26500000, 0.50678227
0.08500000, 0.27500000, 0.50277427
0.08500000, 0.28500000, 0.49678205
0.08500000, 0.29500000, 0.48882926
0.08500000, 0.30500000, 0.47894728
0.08500000, 0.31500000, 0.46717511
0.08500000, 0.32500000, 0.45355922
0.08500000, 0.33500000, 0.43815334
0.08500000, 0.34500000, 0.42101827
0.08500000, 0.35500000, 0.40222163
0.08500000, 0.36500000, 0.38183760
0.08500000, 0.37500000, 0.35994664
0.08500000, 0.38500000, 0.33663513
0.08500000, 0.39500000, 0.31199507
0.08500000, 0.40500000, 0.28612372
0.08500000, 0.41500000, 0.25912316